<?xml version="1.0" encoding="UTF-8"?>

<!-- generated on 2023-11-16 02:33:36 by Eclipse SUMO GUI Version 1.17.0
<configuration xmlns:xsi="http://www.w3.org/2001/XMLSchema-instance" xsi:noNamespaceSchemaLocation="http://sumo.dlr.de/xsd/sumoConfiguration.xsd">

    <input>
        <net-file value="demo_network.net.xml"/>
        <route-files value="demo_network.rou.xml"/>
        <additional-files value="demo_network.add.xml"/>
    </input>

    <output>
        <tripinfo-output value="tripinfo.xml"/>
    </output>

    <traci_server>
        <remote-port value="60314"/>
    </traci_server>

</configuration>
-->

<tripinfos xmlns:xsi="http://www.w3.org/2001/XMLSchema-instance" xsi:noNamespaceSchemaLocation="http://sumo.dlr.de/xsd/tripinfo_file.xsd">
    <tripinfo id="2" depart="7.00" departLane="e0_0" departPos="5.10" departSpeed="0.00" departDelay="5.00" arrival="157.00" arrivalLane="e5_1" arrivalPos="100.00" arrivalSpeed="8.59" duration="150.00" routeLength="1931.65" waitingTime="0.00" waitingCount="0" stopTime="0.00" timeLoss="51.46" rerouteNo="1" devices="tripinfo_2" vType="auto@2" speedFactor="1.01" vaporized=""/>
    <tripinfo id="13" depart="43.00" departLane="e0_0" departPos="5.10" departSpeed="0.00" departDelay="33.00" arrival="175.00" arrivalLane="e3_0" arrivalPos="100.00" arrivalSpeed="15.88" duration="132.00" routeLength="1722.43" waitingTime="0.00" waitingCount="0" stopTime="0.00" timeLoss="47.47" rerouteNo="1" devices="tripinfo_13" vType="car@13" speedFactor="1.12" vaporized=""/>
    <tripinfo id="11" depart="37.00" departLane="e0_0" departPos="5.10" departSpeed="0.00" departDelay="27.00" arrival="192.00" arrivalLane="e5_1" arrivalPos="100.00" arrivalSpeed="15.94" duration="155.00" routeLength="1931.65" waitingTime="0.00" waitingCount="0" stopTime="0.00" timeLoss="55.10" rerouteNo="1" devices="tripinfo_11" vType="car@11" speedFactor="1.03" vaporized=""/>
    <tripinfo id="6" depart="19.00" departLane="e0_0" departPos="5.10" departSpeed="0.00" departDelay="13.00" arrival="256.00" arrivalLane="e7_0" arrivalPos="100.00" arrivalSpeed="19.49" duration="237.00" routeLength="3441.11" waitingTime="0.00" waitingCount="0" stopTime="0.00" timeLoss="68.17" rerouteNo="1" devices="tripinfo_6" vType="car@6" speedFactor="1.05" vaporized=""/>
    <tripinfo id="1" depart="4.00" departLane="e0_0" departPos="5.10" departSpeed="0.00" departDelay="3.00" arrival="263.00" arrivalLane="e10_0" arrivalPos="100.00" arrivalSpeed="12.80" duration="259.00" routeLength="3651.41" waitingTime="0.00" waitingCount="0" stopTime="0.00" timeLoss="63.89" rerouteNo="1" devices="tripinfo_1" vType="car@1" speedFactor="0.94" vaporized=""/>
    <tripinfo id="9" depart="29.00" departLane="e0_0" departPos="5.10" departSpeed="0.00" departDelay="20.00" arrival="280.00" arrivalLane="e6_0" arrivalPos="1400.00" arrivalSpeed="15.25" duration="251.00" routeLength="3339.60" waitingTime="0.00" waitingCount="0" stopTime="0.00" timeLoss="68.43" rerouteNo="1" devices="tripinfo_9" vType="auto@9" speedFactor="0.86" vaporized=""/>
    <tripinfo id="3" depart="10.00" departLane="e0_0" departPos="5.10" departSpeed="0.00" departDelay="7.00" arrival="329.00" arrivalLane="e11_0" arrivalPos="14.18" arrivalSpeed="7.35" duration="319.00" routeLength="5208.25" waitingTime="0.00" waitingCount="0" stopTime="0.00" timeLoss="67.65" rerouteNo="0" devices="tripinfo_3" vType="car@3" speedFactor="1.08" vaporized=""/>
    <tripinfo id="0" depart="0.00" departLane="e0_0" departPos="5.10" departSpeed="0.00" departDelay="0.00" arrival="337.00" arrivalLane="e3_1" arrivalPos="100.00" arrivalSpeed="13.56" duration="337.00" routeLength="5176.92" waitingTime="1.00" waitingCount="1" stopTime="0.00" timeLoss="82.52" rerouteNo="1" devices="tripinfo_0" vType="car@0" speedFactor="1.06" vaporized=""/>
    <tripinfo id="5" depart="16.00" departLane="e0_0" departPos="5.10" departSpeed="0.00" departDelay="11.00" arrival="358.00" arrivalLane="e6_0" arrivalPos="1400.00" arrivalSpeed="7.60" duration="342.00" routeLength="3333.72" waitingTime="0.00" waitingCount="0" stopTime="0.00" timeLoss="155.25" rerouteNo="1" devices="tripinfo_5" vType="auto@5" speedFactor="0.83" vaporized=""/>
    <tripinfo id="4" depart="13.00" departLane="e0_0" departPos="5.10" departSpeed="0.00" departDelay="9.00" arrival="369.00" arrivalLane="e11_0" arrivalPos="14.18" arrivalSpeed="6.38" duration="356.00" routeLength="5204.96" waitingTime="0.00" waitingCount="0" stopTime="0.00" timeLoss="92.21" rerouteNo="0" devices="tripinfo_4" vType="car@4" speedFactor="1.03" vaporized=""/>
    <tripinfo id="10" depart="33.00" departLane="e0_0" departPos="5.10" departSpeed="0.00" departDelay="24.00" arrival="387.00" arrivalLane="e11_0" arrivalPos="14.18" arrivalSpeed="9.16" duration="354.00" routeLength="5199.71" waitingTime="0.00" waitingCount="0" stopTime="0.00" timeLoss="93.36" rerouteNo="0" devices="tripinfo_10" vType="car@10" speedFactor="1.09" vaporized=""/>
    <tripinfo id="7" depart="23.00" departLane="e0_0" departPos="5.10" departSpeed="0.00" departDelay="16.00" arrival="407.00" arrivalLane="e11_0" arrivalPos="14.18" arrivalSpeed="6.68" duration="384.00" routeLength="5193.83" waitingTime="0.00" waitingCount="0" stopTime="0.00" timeLoss="93.86" rerouteNo="0" devices="tripinfo_7" vType="car@7" speedFactor="0.89" vaporized=""/>
    <tripinfo id="8" depart="26.00" departLane="e0_0" departPos="5.10" departSpeed="0.00" departDelay="18.00" arrival="416.00" arrivalLane="e11_0" arrivalPos="14.18" arrivalSpeed="7.74" duration="390.00" routeLength="5193.83" waitingTime="0.00" waitingCount="0" stopTime="0.00" timeLoss="113.09" rerouteNo="0" devices="tripinfo_8" vType="car@8" speedFactor="0.94" vaporized=""/>
    <tripinfo id="12" depart="39.00" departLane="e0_0" departPos="5.10" departSpeed="0.00" departDelay="29.00" arrival="421.00" arrivalLane="e11_0" arrivalPos="14.18" arrivalSpeed="8.46" duration="382.00" routeLength="5193.83" waitingTime="0.00" waitingCount="0" stopTime="0.00" timeLoss="116.99" rerouteNo="0" devices="tripinfo_12" vType="auto@12" speedFactor="1.05" vaporized=""/>
</tripinfos>
