<?xml version="1.0" encoding="UTF-8"?>

<!-- generated on 2023-11-15 21:45:02 by Eclipse SUMO GUI Version 1.17.0
<configuration xmlns:xsi="http://www.w3.org/2001/XMLSchema-instance" xsi:noNamespaceSchemaLocation="http://sumo.dlr.de/xsd/sumoConfiguration.xsd">

    <input>
        <net-file value="demo_network.net.xml"/>
        <route-files value="demo_network.rou.xml"/>
        <additional-files value="demo_network.add.xml"/>
    </input>

    <output>
        <tripinfo-output value="tripinfo.xml"/>
    </output>

    <traci_server>
        <remote-port value="53526"/>
    </traci_server>

</configuration>
-->

<tripinfos xmlns:xsi="http://www.w3.org/2001/XMLSchema-instance" xsi:noNamespaceSchemaLocation="http://sumo.dlr.de/xsd/tripinfo_file.xsd">
    <tripinfo id="4" depart="18.00" departLane="e0_0" departPos="5.10" departSpeed="0.00" departDelay="14.00" arrival="206.00" arrivalLane="e5_1" arrivalPos="100.00" arrivalSpeed="18.00" duration="188.00" routeLength="1931.65" waitingTime="1.00" waitingCount="1" stopTime="0.00" timeLoss="93.27" rerouteNo="1" devices="tripinfo_4" vType="car@4" speedFactor="1.03" vaporized=""/>
    <tripinfo id="13" depart="89.00" departLane="e0_0" departPos="5.10" departSpeed="0.00" departDelay="79.00" arrival="272.00" arrivalLane="e11_0" arrivalPos="14.18" arrivalSpeed="8.19" duration="183.00" routeLength="1745.22" waitingTime="0.00" waitingCount="0" stopTime="0.00" timeLoss="98.45" rerouteNo="1" devices="tripinfo_13" vType="car@13" speedFactor="1.12" vaporized=""/>
    <tripinfo id="9" depart="52.00" departLane="e0_0" departPos="5.10" departSpeed="0.00" departDelay="43.00" arrival="344.00" arrivalLane="e5_0" arrivalPos="100.00" arrivalSpeed="4.00" duration="292.00" routeLength="1928.74" waitingTime="2.00" waitingCount="2" stopTime="0.00" timeLoss="189.59" rerouteNo="1" devices="tripinfo_9" vType="auto@9" speedFactor="0.86" vaporized=""/>
    <tripinfo id="8" depart="45.00" departLane="e0_0" departPos="5.10" departSpeed="0.00" departDelay="37.00" arrival="373.00" arrivalLane="e10_0" arrivalPos="100.00" arrivalSpeed="11.53" duration="328.00" routeLength="3657.29" waitingTime="1.00" waitingCount="1" stopTime="0.00" timeLoss="139.47" rerouteNo="2" devices="tripinfo_8" vType="car@8" speedFactor="0.94" vaporized=""/>
    <tripinfo id="10" depart="57.00" departLane="e0_0" departPos="5.10" departSpeed="0.00" departDelay="48.00" arrival="378.00" arrivalLane="e7_1" arrivalPos="100.00" arrivalSpeed="20.14" duration="321.00" routeLength="3441.11" waitingTime="3.00" waitingCount="2" stopTime="0.00" timeLoss="156.12" rerouteNo="1" devices="tripinfo_10" vType="car@10" speedFactor="1.09" vaporized=""/>
    <tripinfo id="11" depart="67.00" departLane="e0_0" departPos="5.10" departSpeed="0.00" departDelay="57.00" arrival="381.00" arrivalLane="e7_0" arrivalPos="100.00" arrivalSpeed="15.26" duration="314.00" routeLength="3438.22" waitingTime="2.00" waitingCount="2" stopTime="0.00" timeLoss="146.99" rerouteNo="1" devices="tripinfo_11" vType="car@11" speedFactor="1.03" vaporized=""/>
    <tripinfo id="0" depart="0.00" departLane="e0_0" departPos="5.10" departSpeed="0.00" departDelay="0.00" arrival="382.00" arrivalLane="e11_0" arrivalPos="14.18" arrivalSpeed="11.07" duration="382.00" routeLength="5199.71" waitingTime="0.00" waitingCount="0" stopTime="0.00" timeLoss="126.02" rerouteNo="0" devices="tripinfo_0" vType="car@0" speedFactor="1.06" vaporized=""/>
    <tripinfo id="3" depart="12.00" departLane="e0_0" departPos="5.10" departSpeed="0.00" departDelay="9.00" arrival="414.00" arrivalLane="e11_0" arrivalPos="14.18" arrivalSpeed="8.28" duration="402.00" routeLength="5208.25" waitingTime="0.00" waitingCount="0" stopTime="0.00" timeLoss="156.15" rerouteNo="0" devices="tripinfo_3" vType="car@3" speedFactor="1.08" vaporized=""/>
    <tripinfo id="1" depart="4.00" departLane="e0_0" departPos="5.10" departSpeed="0.00" departDelay="3.00" arrival="439.00" arrivalLane="e11_0" arrivalPos="14.18" arrivalSpeed="11.34" duration="435.00" routeLength="5193.83" waitingTime="1.00" waitingCount="1" stopTime="0.00" timeLoss="166.06" rerouteNo="0" devices="tripinfo_1" vType="car@1" speedFactor="0.94" vaporized=""/>
    <tripinfo id="6" depart="30.00" departLane="e0_0" departPos="5.10" departSpeed="0.00" departDelay="24.00" arrival="466.00" arrivalLane="e11_0" arrivalPos="14.18" arrivalSpeed="11.52" duration="436.00" routeLength="5208.25" waitingTime="1.00" waitingCount="1" stopTime="0.00" timeLoss="185.61" rerouteNo="0" devices="tripinfo_6" vType="car@6" speedFactor="1.05" vaporized=""/>
    <tripinfo id="7" depart="38.00" departLane="e0_0" departPos="5.10" departSpeed="0.00" departDelay="31.00" arrival="549.00" arrivalLane="e11_0" arrivalPos="14.18" arrivalSpeed="9.77" duration="511.00" routeLength="5193.83" waitingTime="1.00" waitingCount="1" stopTime="0.00" timeLoss="227.79" rerouteNo="0" devices="tripinfo_7" vType="car@7" speedFactor="0.89" vaporized=""/>
