<?xml version="1.0" encoding="UTF-8"?>

<!-- generated on 2023-12-26 20:23:29 by Eclipse SUMO GUI Version 1.17.0
<configuration xmlns:xsi="http://www.w3.org/2001/XMLSchema-instance" xsi:noNamespaceSchemaLocation="http://sumo.dlr.de/xsd/sumoConfiguration.xsd">

    <input>
        <net-file value="demo_network.net.xml"/>
        <route-files value="demo_network.rou.xml"/>
        <additional-files value="demo_network.add.xml"/>
    </input>

    <output>
        <tripinfo-output value="tripinfo.xml"/>
    </output>

    <processing>
        <random-depart-offset value="100"/>
    </processing>

    <traci_server>
        <remote-port value="51665"/>
    </traci_server>

</configuration>
-->

<tripinfos xmlns:xsi="http://www.w3.org/2001/XMLSchema-instance" xsi:noNamespaceSchemaLocation="http://sumo.dlr.de/xsd/tripinfo_file.xsd">
    <tripinfo id="n_1.0" depart="83.00" departLane="e1_0" departPos="5.10" departSpeed="0.00" departDelay="8.00" arrival="1009.00" arrivalLane="m3_0" arrivalPos="38.28" arrivalSpeed="7.26" duration="926.00" routeLength="17670.00" waitingTime="6.00" waitingCount="2" stopTime="0.00" timeLoss="300.58" rerouteNo="46" devices="tripinfo_n_1.0" vType="car" speedFactor="0.98" vaporized=""/>
    <tripinfo id="n_1.12" depart="357.00" departLane="e1_0" departPos="5.10" departSpeed="0.00" departDelay="9.86" arrival="1012.00" arrivalLane="m1_0" arrivalPos="49.41" arrivalSpeed="15.72" duration="655.00" routeLength="10674.80" waitingTime="82.00" waitingCount="4" stopTime="0.00" timeLoss="289.45" rerouteNo="29" devices="tripinfo_n_1.12" vType="car" speedFactor="1.01" vaporized=""/>
    <tripinfo id="n_2.12" depart="309.00" departLane="e1_0" departPos="5.10" departSpeed="0.00" departDelay="16.86" arrival="1021.00" arrivalLane="m1_0" arrivalPos="49.41" arrivalSpeed="14.21" duration="712.00" routeLength="12308.53" waitingTime="13.00" waitingCount="3" stopTime="0.00" timeLoss="241.57" rerouteNo="30" devices="tripinfo_n_2.12" vType="car" speedFactor="0.90" vaporized=""/>
    <tripinfo id="n_2.42" depart="912.00" departLane="e1_0" departPos="5.10" departSpeed="0.00" departDelay="11.02" arrival="1029.00" arrivalLane="m1_0" arrivalPos="49.41" arrivalSpeed="14.48" duration="117.00" routeLength="1900.50" waitingTime="0.00" waitingCount="0" stopTime="0.00" timeLoss="47.78" rerouteNo="6" devices="tripinfo_n_2.42" vType="car" speedFactor="0.96" vaporized=""/>
    <tripinfo id="n_2.38" depart="915.00" departLane="e1_0" departPos="5.10" departSpeed="0.00" departDelay="13.74" arrival="1046.00" arrivalLane="m1_0" arrivalPos="49.41" arrivalSpeed="13.42" duration="131.00" routeLength="1894.61" waitingTime="1.00" waitingCount="1" stopTime="0.00" timeLoss="64.21" rerouteNo="6" devices="tripinfo_n_2.38" vType="car" speedFactor="1.13" vaporized=""/>
    <tripinfo id="n_2.30" depart="761.00" departLane="e1_0" departPos="5.10" departSpeed="0.00" departDelay="25.16" arrival="1062.00" arrivalLane="m1_0" arrivalPos="49.41" arrivalSpeed="11.17" duration="301.00" routeLength="5371.40" waitingTime="0.00" waitingCount="0" stopTime="0.00" timeLoss="95.49" rerouteNo="14" devices="tripinfo_n_2.30" vType="car" speedFactor="0.91" vaporized=""/>
    <tripinfo id="n_2.8" depart="302.00" departLane="e1_0" departPos="5.10" departSpeed="0.00" departDelay="46.58" arrival="1111.00" arrivalLane="m1_0" arrivalPos="49.41" arrivalSpeed="14.85" duration="809.00" routeLength="15746.53" waitingTime="0.00" waitingCount="0" stopTime="0.00" timeLoss="272.55" rerouteNo="38" devices="tripinfo_n_2.8" vType="car" speedFactor="1.03" vaporized=""/>
    <tripinfo id="n_1.15" depart="340.00" departLane="e1_0" departPos="5.10" departSpeed="0.00" departDelay="5.58" arrival="1136.00" arrivalLane="m1_0" arrivalPos="49.41" arrivalSpeed="16.69" duration="796.00" routeLength="15779.42" waitingTime="0.00" waitingCount="0" stopTime="0.00" timeLoss="255.09" rerouteNo="38" devices="tripinfo_n_1.15" vType="car" speedFactor="1.02" vaporized=""/>
    <tripinfo id="n_1.21" depart="467.00" departLane="e1_0" departPos="5.10" departSpeed="0.00" departDelay="0.01" arrival="1147.00" arrivalLane="m1_0" arrivalPos="49.41" arrivalSpeed="14.21" duration="680.00" routeLength="10661.67" waitingTime="81.00" waitingCount="1" stopTime="0.00" timeLoss="295.05" rerouteNo="29" devices="tripinfo_n_1.21" vType="car" speedFactor="0.96" vaporized=""/>
</tripinfos>
